# vtk DataFile Version 3.0
MOAB 4.9.3pre
ASCII
DATASET RECTILINEAR_GRID
DIMENSIONS 6 6 25
X_COORDINATES 6 double
-100
-60
-20
20
60
100
Y_COORDINATES 6 double
-100
-60
-20
20
60
100
Z_COORDINATES 25 double
126.5
132.69
138.88
145.06
151.25
157.44
163.62
169.81
176
182.19
188.38
194.56
200.75
206.94
213.12
219.31
225.5
231.69
237.88
244.06
250.25
256.44
262.62
268.81
275
CELL_DATA 600
SCALARS TALLY_TAG double 1
LOOKUP_TABLE default
4.71869e-09 
6.89675e-09 
5.31525e-09 
6.11657e-09 
6.95394e-09 
8.39546e-09 
1.00028e-08 
1.28245e-08 
1.7964e-08 
2.34218e-08 
3.62413e-08 
5.21965e-08 
6.90006e-08 
9.71715e-08 
1.40375e-07 
1.86911e-07 
2.33273e-07 
3.3429e-07 
4.81286e-07 
6.2559e-07 
8.03943e-07 
1.07037e-06 
1.19459e-06 
1.09034e-06 
1.6512e-09 
8.57511e-09 
1.54429e-08 
1.85769e-08 
3.39191e-08 
3.45882e-08 
2.8293e-08 
4.456e-08 
7.72553e-08 
8.39985e-08 
1.08036e-07 
1.56926e-07 
1.98115e-07 
3.26634e-07 
5.58156e-07 
7.39674e-07 
9.96763e-07 
1.38522e-06 
2.02761e-06 
2.95052e-06 
3.92908e-06 
4.98054e-06 
5.8448e-06 
4.88092e-06 
1.092e-08 
1.90306e-08 
3.13691e-08 
3.75151e-08 
5.14728e-08 
4.51297e-08 
5.4045e-08 
6.04022e-08 
7.98535e-08 
1.24219e-07 
1.53035e-07 
2.22294e-07 
3.06831e-07 
4.85202e-07 
6.95838e-07 
9.52169e-07 
1.4081e-06 
2.15329e-06 
3.13366e-06 
4.09112e-06 
5.53084e-06 
7.0486e-06 
8.24669e-06 
6.74766e-06 
4.64723e-09 
1.43884e-08 
1.90059e-08 
1.58956e-08 
2.76313e-08 
2.4966e-08 
2.88237e-08 
2.61802e-08 
3.25401e-08 
6.50108e-08 
7.77468e-08 
1.44914e-07 
2.03201e-07 
3.21534e-07 
4.68954e-07 
7.36835e-07 
1.02397e-06 
1.437e-06 
1.95619e-06 
2.77112e-06 
3.93028e-06 
5.07554e-06 
6.08428e-06 
5.02116e-06 
5.93336e-09 
8.12859e-09 
7.17753e-09 
8.37977e-09 
1.03986e-08 
1.85364e-08 
2.10162e-08 
1.95134e-08 
2.78321e-08 
3.98831e-08 
4.99521e-08 
4.96271e-08 
7.01575e-08 
8.91398e-08 
1.27074e-07 
2.0307e-07 
2.74297e-07 
3.74593e-07 
4.59293e-07 
6.01995e-07 
8.20278e-07 
1.03493e-06 
1.13598e-06 
1.03686e-06 
3.66281e-09 
9.57251e-09 
8.17644e-09 
5.90023e-09 
6.87934e-09 
1.01926e-08 
1.30688e-08 
1.81077e-08 
1.74047e-08 
4.22943e-08 
9.57928e-08 
1.33634e-07 
2.32434e-07 
3.68159e-07 
4.78187e-07 
7.69868e-07 
1.08879e-06 
1.59426e-06 
2.22704e-06 
2.97083e-06 
3.90893e-06 
4.95554e-06 
5.72053e-06 
4.90808e-06 
6.75843e-08 
1.19939e-07 
1.19489e-07 
1.34917e-07 
1.32792e-07 
1.4149e-07 
1.50826e-07 
1.86358e-07 
2.00811e-07 
2.70377e-07 
2.41731e-07 
3.11814e-07 
3.86166e-07 
5.4663e-07 
7.54828e-07 
1.17195e-06 
1.73441e-06 
2.67208e-06 
3.85033e-06 
5.05133e-06 
6.82666e-06 
8.86836e-06 
1.00856e-05 
8.01826e-06 
1.61062e-07 
1.87762e-07 
2.0819e-07 
2.13673e-07 
2.13381e-07 
2.01818e-07 
2.13061e-07 
2.57541e-07 
2.79712e-07 
3.08271e-07 
2.98969e-07 
3.15211e-07 
3.40714e-07 
4.39973e-07 
5.35324e-07 
7.89857e-07 
1.15902e-06 
1.8346e-06 
2.69026e-06 
3.97372e-06 
5.70255e-06 
8.27463e-06 
9.74492e-06 
7.7652e-06 
7.88721e-08 
1.14591e-07 
1.28365e-07 
1.43004e-07 
1.50826e-07 
1.56218e-07 
1.69644e-07 
1.86879e-07 
1.73808e-07 
2.0934e-07 
2.48409e-07 
3.12473e-07 
3.85595e-07 
5.62972e-07 
7.01916e-07 
1.10668e-06 
1.7516e-06 
2.48179e-06 
3.6656e-06 
5.04312e-06 
6.79679e-06 
9.11584e-06 
1.01979e-05 
8.16153e-06 
6.18487e-09 
1.30246e-08 
1.46973e-08 
1.9398e-08 
2.18518e-08 
1.83237e-08 
2.24619e-08 
3.42391e-08 
6.71875e-08 
8.61085e-08 
1.26019e-07 
1.50033e-07 
1.81005e-07 
2.99316e-07 
4.93739e-07 
7.11387e-07 
1.15193e-06 
1.63696e-06 
2.14577e-06 
2.91461e-06 
4.06057e-06 
5.08246e-06 
5.75233e-06 
4.67934e-06 
6.7847e-09 
1.80388e-08 
2.04549e-08 
2.88922e-08 
3.43778e-08 
2.57113e-08 
4.00988e-08 
5.97403e-08 
7.53429e-08 
9.12126e-08 
1.29842e-07 
1.94246e-07 
3.38203e-07 
5.14216e-07 
6.64358e-07 
1.08079e-06 
1.59515e-06 
2.23737e-06 
3.15871e-06 
4.53733e-06 
5.92888e-06 
7.15769e-06 
8.08318e-06 
6.71294e-06 
1.39542e-07 
1.97148e-07 
2.10986e-07 
2.42907e-07 
2.60505e-07 
2.53964e-07 
2.58319e-07 
2.56246e-07 
2.55989e-07 
2.6934e-07 
3.09461e-07 
3.45878e-07 
4.05931e-07 
4.66157e-07 
5.16572e-07 
7.02532e-07 
1.14358e-06 
1.71059e-06 
2.72046e-06 
4.08803e-06 
5.67856e-06 
7.99638e-06 
9.64003e-06 
7.78765e-06 
2.21547e-07 
2.49395e-07 
2.62487e-07 
2.67247e-07 
2.74775e-07 
3.10372e-07 
3.38274e-07 
3.22809e-07 
3.51982e-07 
3.75985e-07 
3.81201e-07 
3.83347e-07 
4.00431e-07 
4.00192e-07 
3.83714e-07 
4.83372e-07 
6.80797e-07 
1.11308e-06 
1.76451e-06 
2.89567e-06 
4.49976e-06 
6.48786e-06 
8.08445e-06 
6.93821e-06 
1.55097e-07 
2.05766e-07 
2.29927e-07 
2.25356e-07 
2.22842e-07 
2.32791e-07 
2.66385e-07 
2.85935e-07 
2.73931e-07 
2.78592e-07 
3.03355e-07 
3.45696e-07 
4.0538e-07 
4.92709e-07 
5.09278e-07 
6.92014e-07 
1.07554e-06 
1.78401e-06 
2.4792e-06 
3.76104e-06 
5.64237e-06 
7.71181e-06 
9.36196e-06 
7.79401e-06 
6.12086e-09 
1.11241e-08 
2.30158e-08 
2.73519e-08 
3.40611e-08 
3.47163e-08 
3.64997e-08 
5.02315e-08 
7.55868e-08 
9.10979e-08 
1.29816e-07 
1.6572e-07 
2.54706e-07 
3.99388e-07 
6.84526e-07 
1.04949e-06 
1.49253e-06 
2.1427e-06 
3.07219e-06 
4.17165e-06 
5.4716e-06 
6.92358e-06 
8.16861e-06 
6.7058e-06 
2.90805e-09 
7.52248e-09 
1.47353e-08 
2.32533e-08 
2.01256e-08 
1.59144e-08 
1.79693e-08 
1.33679e-08 
3.22348e-08 
4.89611e-08 
9.04491e-08 
1.53288e-07 
2.1869e-07 
3.34263e-07 
4.80768e-07 
7.28225e-07 
1.15043e-06 
1.56397e-06 
2.25175e-06 
2.93983e-06 
3.92069e-06 
5.02948e-06 
5.74682e-06 
4.95407e-06 
8.75386e-08 
1.07691e-07 
1.33893e-07 
1.39579e-07 
1.45686e-07 
1.6719e-07 
1.83057e-07 
1.75191e-07 
1.99631e-07 
2.32051e-07 
2.69814e-07 
3.63612e-07 
3.99616e-07 
5.30712e-07 
7.35617e-07 
1.12624e-06 
1.72128e-06 
2.6522e-06 
3.62291e-06 
5.22227e-06 
6.82702e-06 
8.90528e-06 
1.02539e-05 
8.26182e-06 
1.35312e-07 
1.93287e-07 
1.99607e-07 
2.05229e-07 
2.17008e-07 
2.42716e-07 
2.47515e-07 
2.5551e-07 
2.56982e-07 
2.90221e-07 
3.08924e-07 
3.23002e-07 
4.27613e-07 
4.60598e-07 
5.57003e-07 
7.81437e-07 
1.25171e-06 
1.78711e-06 
2.55332e-06 
3.91963e-06 
5.84764e-06 
8.09451e-06 
9.79565e-06 
7.90777e-06 
6.95499e-08 
1.08832e-07 
1.41817e-07 
1.56246e-07 
1.59319e-07 
1.36297e-07 
1.4045e-07 
1.60474e-07 
1.95919e-07 
2.08057e-07 
2.66458e-07 
3.364e-07 
4.29803e-07 
5.72207e-07 
8.06797e-07 
1.14141e-06 
1.69926e-06 
2.52734e-06 
3.82998e-06 
5.07465e-06 
6.77536e-06 
8.93357e-06 
1.02377e-05 
8.25426e-06 
2.21904e-09 
6.46842e-09 
1.8804e-08 
9.55631e-09 
8.55819e-09 
1.19462e-08 
3.48136e-08 
4.84954e-08 
5.47511e-08 
5.49098e-08 
1.01931e-07 
1.12908e-07 
1.76529e-07 
3.11752e-07 
4.94936e-07 
6.88257e-07 
9.80549e-07 
1.44175e-06 
2.10115e-06 
2.7945e-06 
3.71615e-06 
4.80168e-06 
5.71623e-06 
5.08661e-06 
3.17898e-09 
4.4016e-09 
6.07736e-09 
6.13033e-09 
8.07565e-09 
1.04123e-08 
1.1438e-08 
1.18084e-08 
1.32064e-08 
1.84157e-08 
3.48215e-08 
4.38618e-08 
7.81946e-08 
9.60381e-08 
1.39757e-07 
1.91077e-07 
2.75349e-07 
3.61299e-07 
4.72143e-07 
6.61826e-07 
8.37224e-07 
9.61386e-07 
1.1146e-06 
1.05875e-06 
4.81805e-09 
1.35604e-08 
1.33498e-08 
1.26206e-08 
1.27969e-08 
1.57471e-08 
2.02155e-08 
2.96873e-08 
3.75157e-08 
5.25374e-08 
7.93723e-08 
1.26019e-07 
2.0016e-07 
3.19479e-07 
4.62985e-07 
6.96701e-07 
1.06501e-06 
1.56878e-06 
2.25867e-06 
3.07739e-06 
4.01984e-06 
5.11872e-06 
6.03261e-06 
5.0419e-06 
1.17221e-08 
1.87086e-08 
2.17489e-08 
1.92372e-08 
3.05088e-08 
4.63861e-08 
3.88184e-08 
4.75146e-08 
6.22877e-08 
8.11231e-08 
1.31189e-07 
2.03804e-07 
3.33028e-07 
4.49728e-07 
6.33188e-07 
9.73748e-07 
1.49263e-06 
2.07947e-06 
3.00051e-06 
4.29654e-06 
5.75639e-06 
7.2278e-06 
8.17917e-06 
6.67546e-06 
8.32415e-10 
1.46887e-09 
4.48704e-09 
1.0403e-08 
8.17576e-09 
3.34118e-09 
8.15172e-09 
1.26587e-08 
2.55238e-08 
6.31215e-08 
7.14159e-08 
1.25669e-07 
2.00374e-07 
3.24106e-07 
5.47632e-07 
8.07859e-07 
1.08982e-06 
1.51224e-06 
2.16777e-06 
2.89534e-06 
4.00399e-06 
5.11561e-06 
5.87593e-06 
4.86824e-06 
4.83712e-09 
5.5358e-09 
5.90214e-09 
6.46929e-09 
8.02258e-09 
9.20312e-09 
1.29185e-08 
1.65957e-08 
2.03591e-08 
2.58926e-08 
3.60492e-08 
5.9126e-08 
7.35284e-08 
1.01113e-07 
1.43725e-07 
1.75592e-07 
2.65251e-07 
3.45306e-07 
4.43572e-07 
5.9862e-07 
7.99333e-07 
1.04839e-06 
1.18736e-06 
1.04625e-06 
SCALARS ERROR_TAG double 1
LOOKUP_TABLE default
0.415799 
0.480193 
0.331863 
0.315399 
0.274334 
0.254078 
0.234462 
0.219886 
0.245148 
0.185445 
0.153634 
0.143131 
0.12735 
0.113106 
0.0981249 
0.0859148 
0.0748668 
0.0651754 
0.0570233 
0.0517508 
0.0480228 
0.0435299 
0.0426667 
0.042124 
0.694134 
0.557323 
0.417764 
0.338409 
0.367998 
0.337001 
0.359346 
0.266904 
0.222309 
0.211684 
0.169133 
0.161434 
0.130707 
0.10769 
0.0846096 
0.0712525 
0.058722 
0.049093 
0.0401669 
0.0354357 
0.0307438 
0.0275606 
0.024491 
0.0227403 
0.411328 
0.394816 
0.456424 
0.311661 
0.311053 
0.25706 
0.264961 
0.237016 
0.188295 
0.178351 
0.152399 
0.143271 
0.109529 
0.0901564 
0.0785271 
0.0639413 
0.0510802 
0.043305 
0.0367851 
0.0320715 
0.0273566 
0.0243235 
0.0221139 
0.0197665 
0.522105 
0.688212 
0.697455 
0.394831 
0.35764 
0.303634 
0.345054 
0.267006 
0.223107 
0.270568 
0.186409 
0.148387 
0.132015 
0.10954 
0.0865319 
0.068707 
0.0588704 
0.0492826 
0.0417584 
0.0354867 
0.0313489 
0.0270357 
0.024851 
0.0225268 
0.339956 
0.361409 
0.30907 
0.309965 
0.242711 
0.267584 
0.26148 
0.190383 
0.17004 
0.162891 
0.168915 
0.11807 
0.124325 
0.0977165 
0.0978104 
0.086555 
0.0729059 
0.0634449 
0.0565342 
0.0513864 
0.046441 
0.0441412 
0.0420305 
0.0422984 
0.672222 
0.633187 
0.588009 
0.539598 
0.538341 
0.389934 
0.396903 
0.370996 
0.285869 
0.211999 
0.205998 
0.142499 
0.123145 
0.100864 
0.0891316 
0.0700247 
0.0585738 
0.0482682 
0.0407747 
0.0350004 
0.0307316 
0.0279137 
0.0251804 
0.0227171 
0.167486 
0.153424 
0.11966 
0.133538 
0.12614 
0.149118 
0.13492 
0.1271 
0.105977 
0.109385 
0.0960923 
0.0920879 
0.0884093 
0.0731468 
0.0635364 
0.0549459 
0.0460368 
0.0373255 
0.0313667 
0.0267552 
0.0236969 
0.0208737 
0.0192511 
0.0178496 
0.0991532 
0.0898988 
0.0913707 
0.0852683 
0.079052 
0.0781849 
0.0753717 
0.0789495 
0.072171 
0.0742754 
0.0732164 
0.0681318 
0.0672965 
0.0684812 
0.0657358 
0.0593672 
0.0483664 
0.0390419 
0.0332394 
0.0270673 
0.0226698 
0.0195358 
0.0182717 
0.0181062 
0.150185 
0.142558 
0.151807 
0.141148 
0.139399 
0.132806 
0.110455 
0.106309 
0.11125 
0.108724 
0.104015 
0.0886117 
0.0866401 
0.0800522 
0.0689207 
0.0559911 
0.0457854 
0.0386289 
0.032195 
0.0278454 
0.0237269 
0.02123 
0.0194402 
0.0181145 
0.622863 
0.399209 
0.49816 
0.496135 
0.510983 
0.393436 
0.311285 
0.262685 
0.243469 
0.204285 
0.196274 
0.166523 
0.121388 
0.0946914 
0.0825029 
0.0676609 
0.0572505 
0.0482948 
0.0404445 
0.0354381 
0.031699 
0.0273775 
0.0248798 
0.0228999 
0.502201 
0.44694 
0.352268 
0.296775 
0.277646 
0.299996 
0.262486 
0.239453 
0.232253 
0.219886 
0.177802 
0.137456 
0.106758 
0.0926734 
0.0716109 
0.0605731 
0.0505851 
0.0427621 
0.0357948 
0.0305534 
0.0275465 
0.0244781 
0.0217633 
0.020316 
0.0986209 
0.0896991 
0.0859259 
0.0834028 
0.0934528 
0.0807052 
0.0779685 
0.0758285 
0.0726975 
0.0743204 
0.0808895 
0.0683316 
0.0691607 
0.0666829 
0.0657884 
0.0583298 
0.0500233 
0.0401147 
0.0322314 
0.0269989 
0.0224028 
0.0197292 
0.018015 
0.0177733 
0.0761124 
0.0734884 
0.0652786 
0.064859 
0.0609804 
0.0625071 
0.060614 
0.0580395 
0.0617981 
0.0587877 
0.0583943 
0.0588198 
0.0617795 
0.0643532 
0.063271 
0.0663555 
0.057107 
0.0474069 
0.037501 
0.0302015 
0.0242808 
0.0204572 
0.0189929 
0.0189564 
0.0957293 
0.105789 
0.0884782 
0.080193 
0.0796463 
0.0896076 
0.0784193 
0.0789426 
0.0769091 
0.0755627 
0.0735688 
0.0729678 
0.0700811 
0.0632671 
0.0644705 
0.0608235 
0.0491111 
0.040235 
0.0331802 
0.0276685 
0.0230635 
0.0200339 
0.0183756 
0.0180597 
0.400237 
0.411837 
0.365271 
0.2593 
0.270909 
0.271533 
0.26227 
0.235925 
0.196873 
0.184744 
0.172906 
0.165009 
0.126665 
0.0934724 
0.0786149 
0.0637487 
0.0517915 
0.043772 
0.0373457 
0.032039 
0.0278596 
0.0242566 
0.0221878 
0.0200761 
0.741043 
0.432855 
0.452548 
0.409767 
0.385614 
0.436415 
0.490123 
0.404388 
0.302156 
0.265188 
0.185727 
0.169766 
0.127254 
0.0988608 
0.082492 
0.070436 
0.0588782 
0.0470267 
0.0403467 
0.0342043 
0.0303983 
0.0272435 
0.0248156 
0.0226365 
0.145599 
0.132249 
0.126478 
0.106545 
0.109033 
0.112955 
0.130408 
0.122008 
0.109594 
0.104637 
0.0970631 
0.0980342 
0.0838856 
0.0732241 
0.0653969 
0.0537283 
0.0467644 
0.0365597 
0.0316216 
0.0270726 
0.0233492 
0.020695 
0.0189847 
0.0179265 
0.101319 
0.10164 
0.0936744 
0.0881602 
0.0826429 
0.0911348 
0.0874003 
0.0781566 
0.0802478 
0.0764538 
0.0716013 
0.0655773 
0.0682601 
0.0658569 
0.0616053 
0.0564599 
0.0476079 
0.0403988 
0.0322895 
0.0276926 
0.0225987 
0.0196614 
0.0181066 
0.018063 
0.14317 
0.122409 
0.122802 
0.125336 
0.125496 
0.12409 
0.123446 
0.135417 
0.118558 
0.0966437 
0.0980745 
0.0925018 
0.0852459 
0.0769667 
0.0644245 
0.0547679 
0.0458962 
0.0372968 
0.0318239 
0.0271475 
0.023163 
0.0212314 
0.0191891 
0.0181458 
0.691108 
0.439492 
0.67953 
0.47976 
0.443449 
0.553469 
0.382258 
0.306771 
0.237937 
0.220695 
0.219387 
0.161274 
0.128855 
0.10106 
0.0872096 
0.0714512 
0.0602091 
0.0501422 
0.0430332 
0.0355444 
0.0316969 
0.0277281 
0.0249176 
0.0227503 
0.40268 
0.347956 
0.304069 
0.302878 
0.315671 
0.306569 
0.355423 
0.258799 
0.229907 
0.178809 
0.200298 
0.142278 
0.134612 
0.114383 
0.0958741 
0.0860724 
0.0728977 
0.0644672 
0.062392 
0.0509463 
0.0477803 
0.0447903 
0.0429687 
0.0419028 
0.541363 
0.595985 
0.432904 
0.373123 
0.536552 
0.333563 
0.302086 
0.284681 
0.299248 
0.255611 
0.195817 
0.178343 
0.131213 
0.113515 
0.0830454 
0.0713593 
0.0578478 
0.048103 
0.040182 
0.0346885 
0.0309276 
0.0277499 
0.0249346 
0.0226726 
0.420956 
0.404003 
0.415462 
0.398271 
0.307118 
0.319522 
0.264791 
0.260764 
0.260186 
0.213365 
0.167918 
0.1398 
0.113222 
0.093342 
0.0758948 
0.0648164 
0.0513561 
0.0451315 
0.0370794 
0.032117 
0.0275569 
0.0244512 
0.0221011 
0.0200235 
0.740352 
0.669371 
0.723163 
0.528177 
0.506359 
0.437189 
0.681523 
0.457737 
0.381865 
0.295598 
0.217799 
0.160211 
0.129218 
0.0993682 
0.0821524 
0.0687152 
0.0588246 
0.0480872 
0.041557 
0.0347136 
0.0299376 
0.0271169 
0.0246332 
0.0228586 
0.325211 
0.31132 
0.295906 
0.292815 
0.255866 
0.252678 
0.220171 
0.207585 
0.180599 
0.161631 
0.175088 
0.139807 
0.123635 
0.12152 
0.102246 
0.0918256 
0.0752597 
0.0676447 
0.0583974 
0.0524321 
0.0488289 
0.0440442 
0.0415939 
0.0417909 
