# vtk DataFile Version 3.0
MOAB 4.9.3pre
ASCII
DATASET UNSTRUCTURED_GRID
POINTS 54 double
0 0 0
0 0 10
0 0 20
0 0 0
0 0 10
0 0 20
0 0 0
0 0 10
0 0 20
-0 0 0
-0 0 10
-0 0 20
-0 0 0
-0 0 10
-0 0 20
-0 -0 0
-0 -0 10
-0 -0 20
-0 -0 0
-0 -0 10
-0 -0 20
0 -0 0
0 -0 10
0 -0 20
0 -0 0
0 -0 10
0 -0 20
1 0 0
1 0 10
1 0 20
0.707107 0.707107 0
0.707107 0.707107 10
0.707107 0.707107 20
1.7949e-09 1 0
1.7949e-09 1 10
1.7949e-09 1 20
-0.707107 0.707107 0
-0.707107 0.707107 10
-0.707107 0.707107 20
-1 3.58979e-09 0
-1 3.58979e-09 10
-1 3.58979e-09 20
-0.707107 -0.707107 0
-0.707107 -0.707107 10
-0.707107 -0.707107 20
-5.38469e-09 -1 0
-5.38469e-09 -1 10
-5.38469e-09 -1 20
0.707107 -0.707107 0
0.707107 -0.707107 10
0.707107 -0.707107 20
1 -7.17959e-09 0
1 -7.17959e-09 10
1 -7.17959e-09 20
CELLS 16 144
8 0 1 4 3 27 28 31 30
8 1 2 5 4 28 29 32 31
8 3 4 7 6 30 31 34 33
8 4 5 8 7 31 32 35 34
8 6 7 10 9 33 34 37 36
8 7 8 11 10 34 35 38 37
8 9 10 13 12 36 37 40 39
8 10 11 14 13 37 38 41 40
8 12 13 16 15 39 40 43 42
8 13 14 17 16 40 41 44 43
8 15 16 19 18 42 43 46 45
8 16 17 20 19 43 44 47 46
8 18 19 22 21 45 46 49 48
8 19 20 23 22 46 47 50 49
8 21 22 25 24 48 49 52 51
8 22 23 26 25 49 50 53 52
CELL_TYPES 16
12
12
12
12
12
12
12
12
12
12
12
12
12
12
12
12
POINT_DATA 54
SCALARS GLOBAL_ID int 1
LOOKUP_TABLE default
1 
2 
3 
2 
3 
4 
3 
4 
5 
4 
5 
6 
5 
6 
7 
6 
7 
8 
7 
8 
9 
8 
9 
10 
9 
10 
11 
2 
3 
4 
3 
4 
5 
4 
5 
6 
5 
6 
7 
6 
7 
8 
7 
8 
9 
8 
9 
10 
9 
10 
11 
10 
11 
12 
