# vtk DataFile Version 3.0
MOAB 4.9.3pre
ASCII
DATASET RECTILINEAR_GRID
DIMENSIONS 4 4 4
X_COORDINATES 4 double
-100
-50
50
100
Y_COORDINATES 4 double
-100
-50
50
100
Z_COORDINATES 4 double
126.5
132.69
138.88
145.06
CELL_DATA 27
SCALARS TALLY_TAG double 1
LOOKUP_TABLE default
1
2
3
4
5
6
7
8
9
10
11
12
13
14
15
16
17
18
19
20
21
22
23
24
25
26
27